 Gaussian 16, Revision A.03,
 Gaussian 16:  ES64L-G16RevA.03 25-Dec-2016

 -------------------------------
 #p HF cc-pvdz 5d nosym pop=full
 -------------------------------

 ----
 geom
 ----
 Symbolic Z-matrix:
 Charge =  0 Multiplicity = 1

                          Input orientation:
 ---------------------------------------------------------------------
 Center     Atomic      Atomic             Coordinates (Angstroms)
 Number     Number       Type             X           Y           Z
 ---------------------------------------------------------------------
      1          1           0        0.000000    0.000000    0.375000
      2          1           0        0.000000    0.000000   -0.375000
 ---------------------------------------------------------------------

 SCF Done:  E(RHF) =  -1.12874313475     A.U. after    5 cycles

 Alpha  occ. eigenvalues --   -0.58941
 Alpha virt. eigenvalues --    0.19551   0.48172   0.93020   1.29182   1.29182
 Alpha virt. eigenvalues --    1.94731   2.03672   2.03672   3.55050

 Mulliken charges:
               1
     1  H    0.000000
     2  H    0.000000
 Sum of Mulliken charges =   0.00000

 Dipole moment (field-independent basis, Debye):
    X=              0.0000    Y=              0.0000    Z=              0.0000  Tot=              0.0000
 Quadrupole moment (field-independent basis, Debye-Ang):
   XX=             -2.0488   YY=             -2.0488   ZZ=             -1.4415
   XY=              0.0000   XZ=              0.0000   YZ=              0.0000

 Normal termination of Gaussian 16 at Wed Dec 27 12:41:31 2023.
