 Gaussian 16, Revision A.03,
 Gaussian 16:  ES64L-G16RevA.03 25-Dec-2016

 ----------------------------
 #p HF cc-pvdz nosym pop=full
 ----------------------------

 ----
 geom
 ----
 Symbolic Z-matrix:
 Charge =  0 Multiplicity = 1

                          Input orientation:
 ---------------------------------------------------------------------
 Center     Atomic      Atomic             Coordinates (Angstroms)
 Number     Number       Type             X           Y           Z
 ---------------------------------------------------------------------
      1          6           0        0.000000    0.000000   -0.133750
      2          1           0        0.000000    0.861107    0.564930
      3          1           0        0.000000   -0.861107    0.564930
 ---------------------------------------------------------------------

 SCF Done:  E(RHF) =  -38.8810790704     A.U. after    9 cycles

 Alpha  occ. eigenvalues --  -11.29323  -0.88911  -0.55880  -0.39036
 Alpha virt. eigenvalues --    0.06291   0.19560   0.26069   0.58639   0.69459
 Alpha virt. eigenvalues --    0.73825   0.78400   0.86443   1.00936   1.20332
 Alpha virt. eigenvalues --    1.21479   1.28904   1.74839   1.76449   1.93690

 Mulliken charges:
               1
     1  C   -0.115243
     2  H    0.057622
     3  H    0.057622
 Sum of Mulliken charges =   0.00000

 Dipole moment (field-independent basis, Debye):
    X=              0.0000    Y=              0.0000    Z=              1.9566  Tot=              1.9566
 Quadrupole moment (field-independent basis, Debye-Ang):
   XX=             -6.1415   YY=             -7.1100   ZZ=             -9.1642
   XY=              0.0000   XZ=              0.0000   YZ=              0.0000

 Normal termination of Gaussian 16 at Tue Dec 19 12:52:38 2023.
