 Gaussian 16, Revision A.03,
 Gaussian 16:  ES64L-G16RevA.03 25-Dec-2016

 ----------------------------
 #p HF cc-pvqz nosym pop=full
 ----------------------------

 ----
 geom
 ----
 Symbolic Z-matrix:
 Charge =  0 Multiplicity = 1

                          Input orientation:
 ---------------------------------------------------------------------
 Center     Atomic      Atomic             Coordinates (Angstroms)
 Number     Number       Type             X           Y           Z
 ---------------------------------------------------------------------
      1          6           0        0.000000    0.000000   -0.133750
      2          1           0        0.000000    0.861107    0.564930
      3          1           0        0.000000   -0.861107    0.564930
 ---------------------------------------------------------------------

 SCF Done:  E(RHF) =  -38.8950716149     A.U. after   10 cycles

 Alpha  occ. eigenvalues --  -11.29174  -0.89227  -0.56435  -0.39633
 Alpha virt. eigenvalues --    0.04218   0.12226   0.18796   0.29082   0.32566
 Alpha virt. eigenvalues --    0.38138   0.42977   0.49522   0.51887   0.57051
 Alpha virt. eigenvalues --    0.57094   0.59895   0.79911   0.85030   0.85510

 Mulliken charges:
               1
     1  C   -0.148658
     2  H    0.074329
     3  H    0.074329
 Sum of Mulliken charges =   0.00000

 Dipole moment (field-independent basis, Debye):
    X=              0.0000    Y=              0.0000    Z=              1.9056  Tot=              1.9056
 Quadrupole moment (field-independent basis, Debye-Ang):
   XX=             -6.3670   YY=             -7.1476   ZZ=             -9.4283
   XY=              0.0000   XZ=              0.0000   YZ=              0.0000

 Normal termination of Gaussian 16 at Tue Dec 19 12:53:51 2023.
